54
mc_step=0 energy_eV=-32489.8953987080
C -0.4271172200 0.4159206600 -0.6307882300
C -1.5249279700 -0.1605741000 -1.2695295200
C -1.8204289100 -1.5056799900 -1.1156006400
C -1.0233566900 -2.3086706900 -0.3114453900
C 0.0662732300 -1.7483610100 0.3344667900
C 0.3604216900 -0.3994204200 0.1762403900
C -0.1521562300 1.9172552400 -0.7863144900
H -2.1692037200 0.4482262700 -1.8900083000
H -2.6768436800 -1.9279777800 -1.6260123700
H -1.2515910100 -3.3597582900 -0.1906335000
H 0.6975494800 -2.3611268400 0.9655766100
H 1.2174220000 0.0165576400 0.6897767900
C -1.1104351800 2.7255537700 0.0968421500
C -1.1948348400 4.1128898800 -0.0680372000
C -1.8760781500 2.1568326900 1.1003283300
C -2.7072149900 2.9240087200 1.9171569100
C -2.7765977600 4.2953299100 1.7305143800
C -2.0097911000 4.8881068700 0.7273483000
H -2.0676030400 5.9606564800 0.5955389500
H -0.5947578600 4.6026681300 -0.8244699400
O -3.5499685000 5.1403957900 2.4656081800
H -3.2854506600 2.4327435700 2.6863199100
H -1.8377431300 1.0886281500 1.2689413200
C 1.3021217300 2.2206043800 -0.4014074300
C -0.3758758900 2.3272089500 -2.2613359100
C 2.3374432200 1.8709765400 -1.2658578800
C 1.6442374600 2.7991966700 0.8168075700
C 2.9703147000 3.0361080900 1.1518572100
C 3.9960792400 2.7041932900 0.2761896200
C 3.6609947500 2.1143696800 -0.9363884200
H 4.4452525700 1.8437456300 -1.6338980100
H 2.1149643000 1.3932098000 -2.2114658600
H 0.8676758200 3.0734815700 1.5189198300
H 3.2055113000 3.4973386500 2.1044315200
C 5.4452118500 2.9706615500 0.6410079600
H 0.0533258600 3.3086274900 -2.4577841800
H -1.4385451300 2.3757881200 -2.4941088900
H 0.0870505300 1.6147402500 -2.9429783400
C -4.3207440200 4.5745701300 3.5068715300
H -4.8484546200 5.3998489500 3.9765618200
H -3.6856108700 4.0828385700 4.2482455200
H -5.0467809000 3.8548103800 3.1196217800
C 5.9212350800 2.0940200100 1.7945295400
C 5.5874423700 4.4391096400 0.9871049300
O 5.6051156200 4.8939069700 2.1015545600
O 5.6527029700 5.1957442400 -0.1191994100
C 5.6773793900 6.6080491300 0.1148580100
H 6.5435395800 6.8812671000 0.7145241100
H 4.7736639000 6.9204003300 0.6356138100
H 5.7300649600 7.0690121100 -0.8662920600
H 6.9718468600 2.2811008400 2.0173588700
H 5.7969489000 1.0426086200 1.5360186400
H 5.3455150800 2.3031753800 2.6948246900
H 6.0526176100 2.7889722600 -0.2473246000
54
mc_step=4 energy_eV=-32488.6828499716
C -0.4301169716 0.4097230353 -0.6011065112
C -1.5031941546 -0.1554947869 -1.2666732727
C -1.7913241011 -1.5196039123 -1.1611973110
C -0.9919197607 -2.3427872925 -0.3425281261
C 0.1157024667 -1.7722540745 0.3531362624
C 0.3563165077 -0.3943443139 0.2453788584
C -0.1898580432 1.9101713626 -0.7945640266
H -2.1769297685 0.4186208919 -1.8785911374
H -2.6139535338 -1.9560875861 -1.6794730469
H -1.2300793421 -3.3853607995 -0.1505981040
H 0.8046450699 -2.3086342474 0.9737304438
H 1.1845015814 0.0877790130 0.7398657748
C -1.1697216579 2.7638972356 0.1198116183
C -1.1692903076 4.1575962372 0.0428452185
C -1.9523672240 2.1828932836 1.0836986846
C -2.8567257096 2.8987217553 1.8786071202
C -2.7827723060 4.2991477665 1.8111592091
C -1.9690615483 4.9346887060 0.8575204631
H -1.9804294890 6.0281132678 0.8017007385
H -0.5734986178 4.6142969566 -0.7551374385
O -3.5755364181 5.1801725019 2.4744575683
H -3.4953842957 2.3720695534 2.5879859678
H -1.8658074299 1.1230304271 1.2214530075
C 1.3500299306 2.1385306552 -0.4495641868
C -0.4219085742 2.2080105960 -2.2221085479
C 2.3966888159 1.8622498638 -1.3392566935
C 1.7075414081 2.6990102373 0.7507207138
C 3.0254677157 2.9125772733 1.1097428333
C 4.0558717082 2.6878934528 0.2214456687
C 3.6933269500 2.1054076926 -0.9815346689
H 4.4714420377 1.6873539349 -1.6271946439
H 2.1755340869 1.3417214491 -2.2533753112
H 0.9620924694 2.8465350413 1.5445535848
H 3.2096812885 3.2473577808 2.1148235068
C 5.4922461502 2.9857745163 0.6021588181
H -0.1272580656 3.2149141369 -2.4408674983
H -1.4624466374 2.0234280147 -2.4889398055
H 0.2474004585 1.5119516485 -2.8296061349
C -4.3496111745 4.6412753551 3.4732448256
H -4.7935057546 5.4275898784 4.0191957838
H -3.7426265650 4.1113615792 4.2380783150
H -5.1519884087 3.9636023818 3.1102676651
C 6.0183288621 2.0466378125 1.7111541654
C 5.5613061196 4.4222087513 0.9763064209
O 5.5625845878 4.9743723543 2.0402534410
O 5.5692267336 5.2120595867 -0.1061765782
C 5.7034283181 6.6510803658 0.1161611552
H 6.5024975847 6.8449192668 0.8140698386
H 4.7901857744 6.9694238576 0.6479154910
H 5.7928885381 7.1679424246 -0.8307969719
H 7.1251282580 2.0171102771 1.6969298019
H 5.6773174124 1.0019581412 1.4472256966
H 5.6168016539 2.3389490757 2.6738462750
H 6.1757220078 2.9202449155 -0.2484229090
54
mc_step=8 energy_eV=-32488.3321730577
C -0.4367874227 0.3406396416 -0.6580959680
C -1.5641701813 -0.1479145970 -1.2870136089
C -1.7960668585 -1.5079111983 -1.2043539975
C -1.0166512454 -2.3476202313 -0.4115465032
C 0.0245228365 -1.8092658388 0.2979437298
C 0.1961973148 -0.4362159054 0.2728529527
C -0.1109363190 1.8732130110 -0.7567064373
H -2.2710687454 0.4365213367 -1.8460589435
H -2.6747085618 -1.9035866364 -1.6164389058
H -1.3063369174 -3.3850850853 -0.2186577958
H 0.5687837705 -2.4239120586 0.9842873145
H 1.0040834382 0.0640711492 0.7655760629
C -1.0908107653 2.8072624538 0.1458207755
C -1.1553448106 4.2239588322 0.0580907839
C -1.9357983293 2.2025532538 1.0372071714
C -2.8136244278 2.9194557514 1.8661126006
C -2.7890389392 4.2982768955 1.7545759150
C -1.9875039046 4.9607831996 0.8351067939
H -1.9402563421 6.0414607518 0.8349617036
H -0.4195939434 4.7494229895 -0.5797022972
O -3.4825370667 5.1306670422 2.5805928453
H -3.4398271714 2.4517680429 2.6154510090
H -1.8731646115 1.1337815065 1.0784521498
C 1.3459886390 2.1601149803 -0.4725829316
C -0.4282382909 2.2537583657 -2.2347560077
C 2.4021816070 1.9281513373 -1.3275515049
C 1.6918926922 2.6063380113 0.7971961406
C 3.0094064646 2.8848088715 1.1366212741
C 4.0645980450 2.6833856595 0.2463886450
C 3.7195931233 2.1522563639 -0.9839058862
H 4.4921258299 2.0998996366 -1.7658876972
H 2.1313318550 1.5568962041 -2.2995720531
H 0.9499524964 2.8545139200 1.5757956209
H 3.1501659936 3.3842365909 2.0792290295
C 5.5158308992 3.0129729995 0.6690002338
H -0.0892185301 3.1877297498 -2.6150859271
H -1.4920362106 2.1117204975 -2.3980318876
H 0.0416402460 1.3797971070 -2.7825917442
C -4.4345035361 4.5995264359 3.4558451189
H -4.9580115955 5.4391380549 3.8226333327
H -4.0072832916 4.1555820324 4.3979307597
H -5.1198030021 3.9326663050 2.9924903387
C 6.0049678290 2.0307125334 1.7490715149
C 5.6271618017 4.4494641527 0.9983729015
O 5.6718265920 4.9684799410 2.0936315605
O 5.5079383244 5.2062783103 -0.1228800497
C 5.6499067977 6.5929289692 0.0547419376
H 6.4986855179 6.7590528415 0.6795222343
H 4.7446698719 6.9544880707 0.5162546581
H 5.7483111988 7.0793536058 -0.8972056125
H 7.0823480351 2.2052267578 2.0262100129
H 5.8936686797 0.9093589246 1.4290128671
H 5.4216982888 2.1240104273 2.6566787733
H 6.1571687279 2.7935818028 -0.1869753776
