54
	Energy:      70.7097668
C         -0.40865        0.38065       -0.63553
C         -1.65240       -0.10244       -1.11325
C         -1.97386       -1.46058       -1.05365
C         -1.06853       -2.37170       -0.51483
C          0.15920       -1.92598       -0.02997
C          0.48958       -0.56889       -0.08554
C         -0.08841        1.89963       -0.71796
H         -2.38700        0.57177       -1.53087
H         -2.93004       -1.80615       -1.42505
H         -1.32032       -3.42334       -0.46855
H          0.85887       -2.63461        0.39447
H          1.44952       -0.28423        0.31745
C         -1.06654        2.72648        0.16330
C         -1.04981        4.13994        0.09464
C         -1.98650        2.13189        1.06082
C         -2.84791        2.91198        1.83718
C         -2.81858        4.31425        1.74678
C         -1.91237        4.91527        0.87211
H         -1.87305        5.99471        0.79427
H         -0.36111        4.65564       -0.55989
O         -3.63449        5.11504        2.48029
H         -3.53241        2.41078        2.50842
H         -2.05164        1.06207        1.18806
C          1.38998        2.18123       -0.32836
C         -0.28499        2.34830       -2.19716
C          2.43735        1.65629       -1.12179
C          1.75625        2.94095        0.80857
C          3.09757        3.16930        1.12404
C          4.12406        2.64770        0.32051
C          3.77721        1.88674       -0.80364
H          4.54520        1.46521       -1.44024
H          2.22373        1.05556       -1.99480
H          1.02115        3.36216        1.47717
H          3.33469        3.75704        2.00187
C          5.58746        2.88843        0.65512
H          0.02904        3.40020       -2.35448
H         -1.34567        2.27589       -2.51271
H          0.30539        1.72529       -2.89939
C         -4.58069        4.68738        3.38844
H         -5.08740        5.57128        3.82702
H         -4.09564        4.11474        4.20752
H         -5.34263        4.05775        2.88138
C          5.92759        2.28294        2.02390
C          5.94743        4.35922        0.61601
O          7.10452        4.69553        0.83122
O          5.00526        5.29454        0.32452
C          5.25582        6.64851        0.26383
H          6.01361        6.86281       -0.51986
H          5.61874        7.01479        1.24794
H          4.31671        7.18078        0.00834
H          7.01045        2.40390        2.24087
H          5.69622        1.19616        2.02630
H          5.35157        2.77372        2.83670
H          6.22428        2.37737       -0.10086
