54
Properties=species:S:1:pos:R:3:forces:R:3:energies:R:1 Energy:=T 70.7097668=T energy=-32489.895398708126 stress="-1.4433907846441022e-09 -3.4072574251068466e-09 1.7614124005324878e-09 -3.4072574251068466e-09 -2.5008373176916454e-10 5.45112034298239e-09 1.7614124005324878e-09 5.45112034298239e-09 -9.074328334950112e-10" free_energy=-32489.895398708126 pbc="F F F"
C       -0.42711722       0.41592066      -0.63078823      -0.00373377      -0.00301044       0.00422200   -1037.12093570
C       -1.52492797      -0.16057410      -1.26952952      -0.00138689      -0.00114281      -0.00309945   -1037.13108470
C       -1.82042891      -1.50567999      -1.11560064       0.00016064      -0.00213131       0.00026913   -1037.13442758
C       -1.02335669      -2.30867069      -0.31144539      -0.00191272       0.00132580       0.00453646   -1037.12815615
C        0.06627323      -1.74836101       0.33446679       0.00046609      -0.00088960       0.00111530   -1037.13499576
C        0.36042169      -0.39942042       0.17624039      -0.00001428      -0.00338558      -0.00359216   -1037.12277179
C       -0.15215623       1.91725524      -0.78631449      -0.00104185      -0.00258412       0.00283718   -1037.31290048
H       -2.16920372       0.44822627      -1.89000830      -0.00238210       0.00218210       0.00124084     -16.12205180
H       -2.67684368      -1.92797778      -1.62601237      -0.00314294       0.00343419       0.00357210     -16.12432317
H       -1.25159101      -3.35975829      -0.19063350       0.00412227       0.00045926      -0.00204286     -16.12252647
H        0.69754948      -2.36112684       0.96557661      -0.00097167       0.00327239       0.00400959     -16.12425450
H        1.21742200       0.01655764       0.68977679      -0.00300116       0.00281243      -0.00434620     -16.12158614
C       -1.11043518       2.72555377       0.09684215      -0.00005558       0.00172376       0.00189402   -1037.10735794
C       -1.19483484       4.11288988      -0.06803720      -0.00039602       0.00142418      -0.00230554   -1037.13308704
C       -1.87607815       2.15683269       1.10032833      -0.00306301      -0.00259754      -0.00328451   -1037.11853811
C       -2.70721499       2.92400872       1.91715691       0.00071670      -0.00028321      -0.00138714   -1037.12368064
C       -2.77659776       4.29532991       1.73051438       0.00272777      -0.00095758       0.00183115   -1037.10523684
C       -2.00979110       4.88810687       0.72734830      -0.00067437       0.00036025       0.00034684   -1037.12906530
H       -2.06760304       5.96065648       0.59553895       0.00226845      -0.00137436      -0.00094329     -16.13037954
H       -0.59475786       4.60266813      -0.82446994       0.00182429       0.00183893      -0.00171979     -16.12460334
O       -3.54996850       5.14039579       2.46560818      -0.00322046      -0.00218834      -0.00348032   -2047.43936979
H       -3.28545066       2.43274357       2.68631991       0.00120765      -0.00005465      -0.00332471     -16.11389672
H       -1.83774313       1.08862815       1.26894132       0.00106648      -0.00233662       0.00248624     -16.12527023
C        1.30212173       2.22060438      -0.40140743       0.00104054      -0.00536561       0.00179344   -1037.11939474
C       -0.37587589       2.32720895      -2.26133591       0.00059530       0.00175695      -0.00032095   -1037.18512401
C        2.33744322       1.87097654      -1.26585788       0.00121116       0.00591876      -0.00303426   -1037.13872965
C        1.64423746       2.79919667       0.81680757      -0.00172255       0.00078355      -0.00457568   -1037.12750073
C        2.97031470       3.03610809       1.15185721      -0.00290885      -0.00215742       0.00632271   -1037.14621954
C        3.99607924       2.70419329       0.27618962      -0.00644002       0.00429442      -0.00031037   -1037.13403278
C        3.66099475       2.11436968      -0.93638842       0.00551124      -0.00247731       0.00141319   -1037.14317217
H        4.44525257       1.84374563      -1.63389801       0.00238410      -0.00010241      -0.00614246     -16.13094638
H        2.11496430       1.39320980      -2.21146586       0.00175460       0.00732885       0.00217547     -16.12537879
H        0.86767582       3.07348157       1.51891983       0.00649582       0.00525784      -0.00279780     -16.11982835
H        3.20551130       3.49733865       2.10443152       0.00195011       0.00464587       0.00431151     -16.13304160
C        5.44521185       2.97066155       0.64100796      -0.00223989      -0.00429281      -0.00270414   -1037.27111955
H        0.05332586       3.30862749      -2.45778418       0.00092832       0.00481279      -0.00110315     -16.15146724
H       -1.43854513       2.37578812      -2.49410889      -0.00236933      -0.00567685       0.00310561     -16.15110551
H        0.08705053       1.61474025      -2.94297834       0.00401936      -0.00087041       0.00224808     -16.15083098
C       -4.32074402       4.57457013       3.50687153       0.00007222      -0.00264542       0.00238333   -1037.02540773
H       -4.84845462       5.39984895       3.97656182      -0.00061657       0.00017318      -0.00250641     -16.14627689
H       -3.68561087       4.08283857       4.24824552       0.00045548      -0.00368625       0.00702398     -16.13514194
H       -5.04678090       3.85481038       3.11962178       0.00018834      -0.00074399      -0.00315213     -16.13495341
C        5.92123508       2.09402001       1.79452954      -0.00104564      -0.00372066       0.00287108   -1037.21650894
C        5.58744237       4.43910964       0.98710493      -0.00144414      -0.00013098      -0.00912798   -1037.10453336
O        5.60511562       4.89390697       2.10155456      -0.00258329      -0.00107357       0.00017907   -2047.80644431
O        5.65270297       5.19574424      -0.11919941      -0.00168737       0.00727940       0.00128535   -2047.68680884
C        5.67737939       6.60804913       0.11485801       0.00247151       0.00617434      -0.00118793   -1037.05233855
H        6.54353958       6.88126710       0.71452411       0.00604405      -0.00146727       0.00052492     -16.14037375
H        4.77366390       6.92040033       0.63561381      -0.00128083      -0.00076965       0.00225425     -16.14103023
H        5.73006496       7.06901211      -0.86629206       0.00176307      -0.00078516      -0.00431311     -16.14997568
H        6.97184686       2.28110084       2.01735887      -0.00080720      -0.00482093       0.00808315     -16.16266400
H        5.79694890       1.04260862       1.53601864       0.00089979      -0.00059251       0.00146367     -16.16636683
H        5.34551508       2.30317538       2.69482469      -0.00373394      -0.00447561      -0.00132599     -16.16007210
H        6.05261761       2.78897226      -0.24732460       0.00153110       0.00153176      -0.00367133     -16.15167338
